Code,Composition,T g (degC),Density (g/cm3),n (1.55 mm) +-0.0001,l peak (+-1 nm),s (x10-21 cm2) (+-1%),Dl eff   (nm) (+-1%),Dl eff   (nm)
PB5,P70B30 +0.5Er,312,6.31,1.9383,1531.8,6.36,73.7,75.1
PB7,P60B40 +0.5Er,356,6.024,1.8841,1531,6.32,67.5,67.1
PB8,P50B50 +0.5Er,408,5.159,1.7829,1529.5,6.23,75.5,74.5
PB14,P30B70 +0.5Er,486,3.838,1.7042,1523.2,6.13,81.2,80.7
PB15,P50G20B30 +0.5Er,482,4.737,1.7485,1529.6,5.64,69.2,69.0
PB19,P30G20B50 +0.5Er,524,4.041,1.6669,1524.4,5.17,92.6,92.8
PB16,P50Bi20B30 +0.5Er,425,5.787,1.8227,1530.4,5.88,68.3,70.6
PB18,P50G20Bi20B10 +0.5Er,509,5.4381,1.8289,1531.6,5.27,63.1,62.9