Element,Atomic mass (a.u.),Mass density (g/cm3),Molar volume (cm3),Optical band gap Eg (eV),Coordination no.,Bond energy (kCal/mol),Heat of atomization (kJ/mol),Atomic density (atom/cm3) x1022,Electro-negativity (Pauling scale)
Cd,112.41,8.65,13.00,0.00,2,1.13,112,4.634,1.69
S,32.06,1.96,15.53,2.60,2,59.64,279,3.888,2.58
Se,78.96,4.82,16.42,1.74,2,44.42,227,3.668,2.55