Sample,Chemical composition,Chemical composition,Chemical composition,Chemical composition,Density in gcm-3,Molar volume in cm3
1,88TeO2,12Nb2O5,-,0.3CdS,5.39+-0.005,32.06+-0.03
2,88TeO2,12Nb2O5,-,0.5CdS,5.401+-0.001,32.081+-0.006
3,90TeO2,5Nb2O5,5ZnO,0.1CdS,5.485+-0.001,29.380+-0.006
4,90TeO2,5Nb2O5,5ZnO,0.2CdS,5.489+-0.0002,29.395+-0.001
5,90TeO2,5Nb2O5,5ZnO,0.3CdS,5.491+-0.001,29.401+-0.006
6,90TeO2,5Nb2O5,5ZnO,0.4CdS,5.496+-0.0002,29.410+-0.001